
#(C) 2022 by FIZ Karlsruhe - Leibniz Institute for Information Infrastructure.  All rights reserved.
data_647316-ICSD
_database_code_ICSD 647316
_audit_creation_date 2012-08-01
_audit_update_record 2019-02-01
_chemical_name_common 'Platinum dioxide - HP'
_chemical_formula_structural 'Pt O2'
_chemical_formula_sum 'O2 Pt1'
_chemical_name_structure_type Rutile#TiO2
_exptl_crystal_density_diffrn 11.98
_citation_title 'A new high pressure form of PtO2'
_publ_section_comment 'Cell and Type only determined'
loop_
_citation_id
_citation_journal_full
_citation_year
_citation_journal_volume
_citation_page_first
_citation_page_last
_citation_journal_id_ASTM
primary 'Journal of the Less-Common Metals' 1984 99 99 105 JCOMAH
loop_
_citation_author_citation_id
_citation_author_name
primary 'Herrero Fernandez, M.P.'
primary 'Chamberland, B.L.'
_cell_length_a 4.485(1)
_cell_length_b 4.485(1)
_cell_length_c 3.130(2)
_cell_angle_alpha 90.
_cell_angle_beta 90.
_cell_angle_gamma 90.
_cell_volume 62.96
_cell_formula_units_Z 2
_space_group_name_H-M_alt 'P 42/m n m'
_space_group_IT_number 136
loop_
_space_group_symop_id
_space_group_symop_operation_xyz
1 '-y+1/2, x+1/2, -z+1/2'
2 'y+1/2, -x+1/2, -z+1/2'
3 'y, x, -z'
4 '-y, -x, -z'
5 'y+1/2, -x+1/2, z+1/2'
6 '-y+1/2, x+1/2, z+1/2'
7 '-y, -x, z'
8 'y, x, z'
9 'x+1/2, -y+1/2, -z+1/2'
10 '-x+1/2, y+1/2, -z+1/2'
11 'x, y, -z'
12 '-x, -y, -z'
13 '-x+1/2, y+1/2, z+1/2'
14 'x+1/2, -y+1/2, z+1/2'
15 '-x, -y, z'
16 'x, y, z'
loop_
_atom_type_symbol
_atom_type_oxidation_number
Pt4+ 4
O2- -2
loop_
_atom_site_label
_atom_site_type_symbol
_atom_site_symmetry_multiplicity
_atom_site_Wyckoff_symbol
_atom_site_fract_x
_atom_site_fract_y
_atom_site_fract_z
_atom_site_B_iso_or_equiv
_atom_site_occupancy
Pt1 Pt4+ 2 a 0 0 0 . 1.
O1 O2- 4 f 0.305 0.305 0 . 1.
#End of TTdata_647316-ICSD